version 3
run General-0-20230503-19:21:39-34807
attr configname General
attr datetime 20230503-19:21:39
attr datetimef 20230503-192139
attr experiment General
attr inifile omnetpp.ini
attr iterationvars ""
attr iterationvarsd ""
attr iterationvarsf ""
attr measurement ""
attr network Network
attr processid 34807
attr repetition 0
attr replication #0
attr resultdir results
attr runnumber 0
attr seedset 0
config network Network
config sim-time-limit 200s
config Network.nodeTx.gen.generationInterval exponential(0.1)
config Network.nodeTx.gen.packetByteSize 12500
config Network.queue.serviceTime 0
config Network.nodeRx.queue.serviceTime 0
config Network.nodeTx.queue.serviceTime 0
config Network.queue.bufferSize 200
config Network.nodeRx.queue.bufferSize 200
config Network.nodeTx.queue.bufferSize 20000000

vector 0 Network.nodeTx.gen PacketsSends ETV
vector 1 Network.nodeTx.queue "Buffer Size" ETV
vector 2 Network.queue "Buffer Size" ETV
vector 3 Network.nodeRx.queue "Buffer Size" ETV
vector 4 Network.nodeRx.sink Delay ETV
vector 5 Network.nodeRx.sink packetReceived ETV
vector 6 Network.nodeRx.queue "Packet drops" ETV
0	1	0.079587450457	1
0	4	0.169443489305	1
0	14	0.29503656511	1
0	24	0.480996986317	1
0	29	0.573319299464	1
0	40	0.768473833052	1
0	45	0.84719394705	1
0	56	1.03509035247	1
0	63	1.090195201137	1
0	68	1.187895843776	1
0	76	1.291711773842	1
0	82	1.340224590214	1
0	84	1.397776509902	1
0	86	1.433092423816	1
0	102	1.65544486602	1
0	104	1.661283332929	1
0	122	1.992774560922	1
0	125	2.024610175006	1
0	129	2.072970385501	1
0	136	2.137915020326	1
0	148	2.294804632088	1
0	154	2.46202575212	1
0	162	2.537293163451	1
0	168	2.602681420173	1
0	172	2.686624705463	1
0	178	2.736511906365	1
0	194	2.99633731495	1
0	204	3.177174241377	1
0	207	3.184542776924	1
0	211	3.225700576548	1
0	213	3.23481667916	1
0	220	3.339277929991	1
0	222	3.341320488831	1
0	228	3.387245302557	1
0	236	3.565994068901	1
0	258	3.881011061769	1
0	264	4.031589487633	1
0	266	4.046712572999	1
0	278	4.250743998793	1
0	290	4.454833220384	1
0	304	4.839355407298	1
0	309	4.903526324566	1
0	318	5.064050280272	1
0	328	5.225450487761	1
0	335	5.287343433724	1
0	340	5.360839875843	1
0	348	5.512493473242	1
0	358	5.626087367413	1
0	361	5.638674808357	1
0	370	5.766197578579	1
0	376	5.868340766014	1
0	384	5.955572885518	1
0	386	5.971045853568	1
0	392	6.048129319415	1
0	410	6.337571367214	1
0	418	6.479707835223	1
0	425	6.553490564399	1
0	427	6.564685180462	1
0	432	6.618241752485	1
0	440	6.682411222688	1
0	442	6.713139257903	1
0	444	6.733759586106	1
0	456	6.882585068681	1
0	462	7.016114087143	1
0	464	7.077022329461	1
0	472	7.101427178535	1
0	478	7.185460649096	1
0	480	7.199988451825	1
0	482	7.201885308745	1
0	484	7.241062389813	1
0	492	7.33720048372	1
0	494	7.353414132665	1
0	500	7.448113800382	1
0	502	7.473257993589	1
0	510	7.569212791326	1
0	516	7.618068496257	1
0	534	7.905859998385	1
0	546	8.138751335806	1
0	552	8.253265231276	1
0	560	8.313039838958	1
0	562	8.357591688463	1
0	568	8.452541146813	1
0	576	8.509994387487	1
0	588	8.742629493656	1
0	594	8.862240273602	1
0	596	8.87269639618	1
0	598	8.878907925227	1
0	620	9.228929293672	1
0	628	9.338820540427	1
0	634	9.444703953576	1
0	642	9.555763698145	1
0	644	9.574506304747	1
0	650	9.598126975355	1
0	652	9.642467378217	1
0	654	9.65627024706	1
0	666	9.795174516039	1
0	668	9.833070712467	1
0	676	9.926676868444	1
0	678	9.971887074466	1
0	684	10.011198330196	1
0	692	10.095641109549	1
0	694	10.09955942519	1
0	696	10.157291856271	1
0	702	10.257878956788	1
0	730	10.703328641406	1
0	746	11.022623305611	1
0	748	11.033386816427	1
0	756	11.139169457762	1
0	758	11.16259960964	1
0	764	11.263401534182	1
0	772	11.280992888725	1
0	798	11.817002923749	1
0	806	11.922877195258	1
0	812	12.010068780621	1
0	814	12.039276833948	1
0	822	12.092783301656	1
0	824	12.155577459755	1
0	830	12.219955559915	1
0	832	12.247983260763	1
0	840	12.34566966817	1
0	842	12.362982413785	1
0	848	12.404232536777	1
0	850	12.415928077756	1
0	858	12.528244907909	1
0	864	12.635052127624	1
0	866	12.673207711961	1
0	874	12.688078938886	1
0	880	12.838742472213	1
0	882	12.860630531864	1
0	900	13.159349521049	1
0	906	13.205350916823	1
0	914	13.313977854911	1
0	926	13.486011020683	1
0	928	13.487377478526	1
0	930	13.497591966678	1
0	936	13.595102160094	1
0	944	13.777084052022	1
0	956	13.889065488597	1
0	958	13.899168966128	1
0	974	14.256527803362	1
0	996	14.63143094932	1
0	1008	14.841963079399	1
0	1016	14.905196739039	1
0	1018	14.976455098372	1
0	1040	15.352647826822	1
0	1042	15.358380519464	1
0	1048	15.451228369154	1
0	1056	15.511223057818	1
0	1062	15.645647585033	1
0	1064	15.647666597848	1
0	1066	15.651664227754	1
0	1074	15.709952066641	1
0	1076	15.743193090737	1
0	1098	16.132350103022	1
0	1100	16.145155779553	1
0	1106	16.189697725745	1
0	1108	16.224815334683	1
0	1116	16.290379963119	1
0	1118	16.303018826762	1
0	1124	16.419706179417	1
0	1126	16.457976274303	1
0	1138	16.670399994003	1
0	1146	16.723888431579	1
0	1158	16.974279609888	1
0	1164	16.980909350036	1
0	1166	17.005348894844	1
0	1174	17.123267847551	1
0	1180	17.206552199158	1
0	1188	17.290161952355	1
0	1200	17.490486004606	1
0	1202	17.521327488616	1
0	1208	17.592452282338	1
0	1210	17.666528177383	1
0	1228	17.915086413081	1
0	1230	17.924951443923	1
0	1242	18.178981894719	1
0	1248	18.264771458826	1
0	1250	18.27344850706	1
0	1268	18.538374099928	1
0	1270	18.570908141481	1
0	1276	18.609264162891	1
0	1278	18.610204237957	1
0	1286	18.720288828966	1
0	1298	18.905021594066	1
0	1300	18.919154665422	1
0	1306	19.02333273084	1
0	1314	19.149326111851	1
0	1326	19.333454359	1
0	1328	19.367619775703	1
0	1334	19.398371548079	1
0	1336	19.418606591936	1
0	1338	19.469326604262	1
0	1346	19.557639508458	1
0	1352	19.638119248438	1
0	1354	19.640150494318	1
0	1356	19.658175719516	1
0	1368	19.834749826757	1
0	1376	19.880922916361	1
0	1378	19.88139357041	1
0	1380	19.897227721033	1
0	1386	20.01049113523	1
0	1394	20.094799438445	1
0	1396	20.12627160453	1
0	1402	20.247922469874	1
0	1414	20.380798257249	1
0	1416	20.414832931073	1
0	1434	20.742347248844	1
0	1440	20.799137664192	1
0	1442	20.827739761443	1
0	1450	20.968842202372	1
0	1456	21.054681499155	1
0	1464	21.105115879814	1
0	1470	21.194774966893	1
0	1482	21.421148324479	1
0	1490	21.506070405635	1
0	1496	21.607936278637	1
0	1498	21.633178277926	1
0	1510	21.855328967773	1
0	1528	22.160557133461	1
0	1534	22.274517929814	1
0	1542	22.333780332559	1
0	1548	22.393418271992	1
0	1560	22.580764259978	1
0	1578	22.965064918302	1
0	1590	23.085288775027	1
0	1592	23.097641439763	1
0	1594	23.13294345309	1
0	1600	23.278625308946	1
0	1612	23.446717529401	1
0	1620	23.499789779063	1
0	1622	23.550291653838	1
0	1628	23.662819855522	1
0	1640	23.875769795129	1
0	1648	23.904510842736	1
0	1654	23.991564425369	1
0	1656	24.02913830961	1
0	1668	24.242621354608	1
0	1686	24.579058399913	1
0	1698	24.696996693277	1
0	1704	24.785782834321	1
0	1712	24.914973761201	1
0	1718	25.022757249615	1
0	1726	25.092337195705	1
0	1728	25.168523972835	1
0	1748	25.481070808601	1
0	1751	25.507276532769	1
0	1756	25.610556233834	1
0	1758	25.66078731366	1
0	1766	25.715926912673	1
0	1772	25.812372269222	1
0	1780	25.905612557263	1
0	1782	25.970023028095	1
0	1784	25.97196100623	1
0	1790	26.035473777793	1
0	1792	26.07136649938	1
0	1804	26.197270851106	1
0	1812	26.305202870972	1
0	1814	26.33916934423	1
0	1816	26.3734293067	1
0	1822	26.421792875359	1
0	1830	26.518030380936	1
0	1836	26.65632830159	1
0	1844	26.712324408597	1
0	1856	26.923069169092	1
0	1858	26.937626566937	1
0	1860	26.948481276786	1
0	1866	26.983903690011	1
0	1868	26.993595965469	1
0	1870	27.077984812728	1
0	1878	27.121687614105	1
0	1884	27.211060521936	1
0	1892	27.291315720512	1
0	1894	27.376723694076	1
0	1896	27.380144035912	1
0	1908	27.48604497445	1
0	1924	27.833298522378	1
0	1932	27.938883483244	1
0	1934	27.977596492459	1
0	1940	28.034057542571	1
0	1942	28.059065692069	1
0	1960	28.285929091338	1
0	1962	28.301158453863	1
0	1964	28.346975742259	1
0	1966	28.357207803744	1
0	1972	28.414453958887	1
0	1994	28.828234934938	1
0	2006	29.050726400661	1
0	2010	29.080882991983	1
0	2020	29.244972749776	1
0	2028	29.321980435731	1
0	2034	29.443682385265	1
0	2042	29.503089735097	1
0	2044	29.51365099946	1
0	2046	29.52413918302	1
0	2058	29.776067396028	1
0	2064	29.819501961622	1
0	2072	29.944762714113	1
0	2078	30.008108975885	1
0	2116	30.684648027879	1
0	2122	30.868621306387	1
0	2130	30.884808315058	1
0	2142	31.119826044033	1
0	2154	31.322416925743	1
0	2157	31.326245217031	1
0	2159	31.343977774546	1
0	2163	31.414969567268	1
0	2170	31.51056620966	1
0	2176	31.528820069848	1
0	2178	31.542038440809	1
0	2186	31.69302078637	1
0	2198	31.881413675029	1
0	2210	32.081612324582	1
0	2220	32.246284234715	1
0	2224	32.299284522529	1
0	2230	32.383472618702	1
0	2232	32.398551719721	1
0	2238	32.45083872273	1
0	2240	32.454217401285	1
0	2242	32.461384939716	1
0	2264	32.866369623596	1
0	2272	32.985913480224	1
0	2278	33.032640736865	1
0	2282	33.09307064405	1
0	2288	33.147556356864	1
0	2294	33.275589777245	1
0	2298	33.280781032463	1
0	2310	33.482058306084	1
0	2316	33.527549490563	1
0	2334	33.898545549753	1
0	2336	33.900222326352	1
0	2348	34.093880050101	1
0	2350	34.120112981018	1
0	2352	34.12129130421	1
0	2362	34.266070712409	1
0	2366	34.310695994461	1
0	2382	34.599157169671	1
0	2394	34.730087006073	1
0	2402	34.868716141275	1
0	2407	34.887545638797	1
0	2409	34.929006893063	1
0	2416	35.002620003062	1
0	2422	35.069866054745	1
0	2424	35.075453060034	1
0	2428	35.116850952301	1
0	2430	35.139164873111	1
0	2432	35.158947823857	1
0	2434	35.160817370899	1
0	2440	35.179569266019	1
0	2448	35.33741053823	1
0	2454	35.399670272628	1
0	2456	35.425020843142	1
0	2468	35.632623949186	1
0	2474	35.674989659322	1
0	2488	35.963444088163	1
0	2504	36.226665974418	1
0	2512	36.32037984619	1
0	2518	36.442259526524	1
0	2526	36.533055929256	1
0	2528	36.536291609721	1
0	2540	36.689374732348	1
0	2542	36.707370466503	1
0	2548	36.776690443457	1
0	2554	36.873838659266	1
0	2556	36.879006949846	1
0	2560	36.965099313514	1
0	2572	37.085196404168	1
0	2574	37.112363211202	1
0	2600	37.600276500001	1
0	2616	37.872411325592	1
0	2620	37.903508106089	1
0	2626	37.998691076843	1
0	2634	38.112350726369	1
0	2640	38.189058691826	1
0	2652	38.388775888575	1
0	2658	38.477913746266	1
0	2666	38.616881452644	1
0	2674	38.74785998978	1
0	2690	39.081653423165	1
0	2693	39.119042072755	1
0	2698	39.199840078095	1
0	2700	39.250626590364	1
0	2702	39.274501877649	1
0	2710	39.298054334991	1
0	2712	39.323214196302	1
0	2714	39.34381740115	1
0	2716	39.36850332803	1
0	2732	39.65741088722	1
0	2740	39.741708764761	1
0	2746	39.876243508084	1
0	2754	39.936411406736	1
0	2760	40.0038358637	1
0	2778	40.355283731754	1
0	2780	40.381085008148	1
0	2792	40.495198798434	1
0	2794	40.524549563626	1
0	2796	40.533464992626	1
0	2798	40.539443088918	1
0	2800	40.54525032513	1
0	2806	40.602240081661	1
0	2808	40.66915145403	1
0	2816	40.706518433469	1
0	2828	40.919385442922	1
0	2834	41.038571253287	1
0	2856	41.41324071467	1
0	2858	41.460682343703	1
0	2866	41.55682630086	1
0	2868	41.576623074393	1
0	2874	41.654820646481	1
0	2876	41.657319481812	1
0	2888	41.8501554955	1
0	2890	41.857117262607	1
0	2902	41.993310435038	1
0	2910	42.107064285592	1
0	2912	42.172187358784	1
0	2918	42.232645480618	1
0	2926	42.345681035209	1
0	2932	42.422593015319	1
0	2940	42.51599904858	1
0	2952	42.742983050158	1
0	2958	42.868403377167	1
0	2986	43.332368629804	1
0	2992	43.395761631743	1
0	2994	43.420210733947	1
0	2998	43.481094025321	1
0	3008	43.589884468682	1
0	3020	43.826776285766	1
0	3022	43.857336775947	1
0	3024	43.872096379236	1
0	3026	43.874183101097	1
0	3034	43.900218242252	1
0	3040	44.042256587811	1
0	3052	44.255612916558	1
0	3060	44.294181685963	1
0	3072	44.528966062106	1
0	3074	44.577329900855	1
0	3082	44.681114908404	1
0	3088	44.769865101252	1
0	3094	44.809122404071	1
0	3106	44.986936737754	1
0	3108	45.060273505071	1
0	3116	45.159423934361	1
0	3118	45.159429469551	1
0	3130	45.365511593639	1
0	3136	45.402887923021	1
0	3138	45.434845388508	1
0	3146	45.490262471413	1
0	3152	45.650234415597	1
0	3164	45.866810783684	1
0	3172	45.887345560558	1
0	3178	46.001251325625	1
0	3196	46.306569792584	1
0	3198	46.367474253855	1
0	3210	46.483785582198	1
0	3212	46.549835890173	1
0	3214	46.57410773954	1
0	3226	46.729574033321	1
0	3242	47.024022061063	1
0	3245	47.050086074001	1
0	3254	47.181336873298	1
0	3266	47.393611538692	1
0	3269	47.422906684541	1
0	3273	47.460549619693	1
0	3277	47.484541971637	1
0	3296	47.800251525779	1
0	3299	47.873274292303	1
0	3308	47.937093152862	1
0	3310	47.939692927381	1
0	3316	48.064028005176	1
0	3320	48.087280507014	1
0	3326	48.103967971137	1
0	3328	48.159251808202	1
0	3336	48.290349045018	1
0	3342	48.337216692616	1
0	3348	48.441137256274	1
0	3356	48.50342018725	1
0	3358	48.527612151727	1
0	3360	48.560133753525	1
0	3362	48.580769552885	1
0	3368	48.669148118488	1
0	3380	48.833955735804	1
0	3392	49.033359655932	1
0	3400	49.170827651312	1
0	3402	49.183330910304	1
0	3410	49.295676960259	1
0	3416	49.368529344532	1
0	3422	49.400949255881	1
0	3424	49.415113459361	1
0	3426	49.434339603445	1
0	3434	49.560520870794	1
0	3442	49.682420805312	1
0	3448	49.732848798637	1
0	3450	49.795052490545	1
0	3456	49.87839031461	1
0	3468	50.061916654904	1
0	3472	50.082162531274	1
0	3478	50.105086963795	1
0	3480	50.120734540833	1
0	3482	50.138761970791	1
0	3488	50.205716029877	1
0	3490	50.219050092204	1
0	3492	50.262995631253	1
0	3500	50.391038066651	1
0	3516	50.673101661493	1
0	3518	50.676194290649	1
0	3530	50.821149768292	1
0	3538	50.958584069734	1
0	3546	51.096680379301	1
0	3552	51.106397147138	1
0	3564	51.340446343204	1
0	3566	51.364966152468	1
0	3568	51.373677010794	1
0	3580	51.512008657409	1
0	3582	51.592347833676	1
0	3594	51.723910459506	1
0	3600	51.811731967378	1
0	3602	51.816400741742	1
0	3620	52.143250381824	1
0	3622	52.16671596675	1
0	3628	52.201267925121	1
0	3630	52.235083396605	1
0	3632	52.262636190309	1
0	3640	52.375728038228	1
0	3642	52.386296755638	1
0	3644	52.392808042117	1
0	3646	52.394464651559	1
0	3652	52.475578753782	1
0	3670	52.740834605334	1
0	3672	52.741762907772	1
0	3678	52.852603883193	1
0	3690	53.031602843641	1
0	3698	53.185385715089	1
0	3724	53.600982824645	1
0	3726	53.634073812763	1
0	3734	53.755642860099	1
0	3740	53.843930914595	1
0	3742	53.863975134104	1
0	3744	53.870584335173	1
0	3752	53.942408983184	1
0	3758	54.008889758139	1
0	3762	54.095746331286	1
0	3782	54.475148709595	1
0	3794	54.630049877511	1
0	3806	54.839205534773	1
0	3814	54.9324667203	1
0	3816	54.973739706973	1
0	3818	54.998381289194	1
0	3840	55.324273386912	1
0	3842	55.385001315774	1
0	3848	55.411359027058	1
0	3860	55.622447904496	1
0	3878	55.920667972043	1
0	3880	55.988448172249	1
0	3896	56.272112191587	1
0	3904	56.397835891144	1
0	3916	56.558381767451	1
0	3922	56.624966016115	1
0	3930	56.724512380452	1
0	3936	56.847800426755	1
0	3948	57.055176573065	1
0	3956	57.12412002685	1
0	3958	57.158795357229	1
0	3970	57.344938521527	1
0	3982	57.533948691337	1
0	3984	57.555558312996	1
0	3990	57.651759505655	1
0	3998	57.80018375392	1
0	4004	57.801516278403	1
0	4022	58.167482011479	1
0	4028	58.210135592683	1
0	4040	58.408410483143	1
0	4043	58.424443892592	1
0	4052	58.576050785575	1
0	4068	58.976845751062	1
0	4080	59.397031693687	1
0	4083	59.462111427923	1
0	4094	59.602178997619	1
0	4097	59.670973345465	1
0	4099	59.671378977597	1
0	4108	59.773397686392	1
0	4114	59.804797476198	1
0	4116	59.850776607976	1
0	4124	59.903623330806	1
0	4126	59.918345834537	1
0	4128	59.974246601536	1
0	4140	60.14690993951	1
0	4142	60.182269597036	1
0	4148	60.203322925856	1
0	4150	60.254594390119	1
0	4158	60.326198921918	1
0	4160	60.339056945646	1
0	4162	60.364458083481	1
0	4184	60.759221410237	1
0	4186	60.769518246609	1
0	4192	60.821626128717	1
0	4204	61.019815162828	1
0	4212	61.104028793112	1
0	4228	61.46492289361	1
0	4236	61.507022223415	1
0	4252	61.831018520105	1
0	4260	61.98654795614	1
0	4274	62.223586714201	1
0	4277	62.276582872128	1
0	4288	62.425325847562	1
0	4291	62.469840781503	1
0	4295	62.510359069737	1
0	4302	62.561358153122	1
0	4304	62.569816102298	1
0	4306	62.605745492811	1
0	4312	62.658042258177	1
0	4320	62.807305474596	1
0	4326	62.83373252101	1
0	4340	63.094389701242	1
0	4342	63.108602252381	1
0	4348	63.147952493493	1
0	4350	63.153443230748	1
0	4366	63.458929208649	1
0	4374	63.588243994529	1
0	4376	63.589648653653	1
0	4378	63.590797978674	1
0	4384	63.667040347095	1
0	4392	63.814260762894	1
0	4398	63.850584984784	1
0	4400	63.86647830275	1
0	4414	64.080916849201	1
0	4416	64.089203076493	1
0	4418	64.118054347528	1
0	4424	64.127441802256	1
0	4430	64.240579679016	1
0	4438	64.352068421207	1
0	4446	64.518364999274	1
0	4452	64.546517401521	1
0	4454	64.603106855684	1
0	4460	64.657672627161	1
0	4468	64.797159536287	1
0	4474	64.878661369377	1
0	4486	65.055623351698	1
0	4498	65.252629108257	1
0	4502	65.300276966517	1
0	4512	65.430121530077	1
0	4514	65.440274938471	1
0	4516	65.471790941343	1
0	4520	65.501381128668	1
0	4522	65.51547791711	1
0	4528	65.605110837612	1
0	4530	65.610807490859	1
0	4536	65.675524961263	1
0	4540	65.711421093101	1
0	4546	65.7783513803	1
0	4548	65.808748536223	1
0	4554	65.870092445182	1
0	4562	65.930998890714	1
0	4564	66.005357209892	1
0	4572	66.120331348667	1
0	4578	66.178673725771	1
0	4586	66.297623350904	1
0	4598	66.489107576668	1
0	4600	66.522447910506	1
0	4606	66.57926495888	1
0	4612	66.627056757631	1
0	4620	66.802428222133	1
0	4622	66.822413775925	1
0	4630	66.893614582487	1
0	4640	67.04898913269	1
0	4642	67.058022857098	1
0	4644	67.063875646993	1
0	4652	67.171768337843	1
0	4660	67.291169674903	1
0	4662	67.314311772099	1
0	4672	67.465133295262	1
0	4684	67.653045138683	1
0	4692	67.803286418054	1
0	4700	67.917655480113	1
0	4706	67.947687988142	1
0	4708	67.967334176732	1
0	4710	68.014144822055	1
0	4712	68.021386733066	1
0	4720	68.109962797669	1
0	4722	68.110936338603	1
0	4728	68.142794723391	1
0	4740	68.365403122335	1
0	4742	68.411742125089	1
0	4748	68.426067427227	1
0	4750	68.448014243316	1
0	4758	68.599060403438	1
0	4764	68.660652331816	1
0	4778	68.919897192694	1
0	4780	68.924460997644	1
0	4790	69.050050346078	1
0	4798	69.210892130987	1
0	4804	69.278387228352	1
0	4808	69.286395113946	1
0	4814	69.349788326595	1
0	4816	69.422942860508	1
0	4832	69.637252830551	1
0	4834	69.673897959734	1
0	4842	69.740921147392	1
0	4848	69.827087896572	1
0	4852	69.880628331681	1
0	4868	70.201109214642	1
0	4870	70.220238819232	1
0	4878	70.323963328642	1
0	4884	70.388454177759	1
0	4886	70.392054460734	1
0	4898	70.545139302628	1
0	4900	70.60142182281	1
0	4908	70.682711658929	1
0	4914	70.754050087209	1
0	4916	70.771469603246	1
0	4922	70.848294937433	1
0	4924	70.863823495983	1
0	4932	70.978203033895	1
0	4940	71.083031944391	1
0	4942	71.11554903144	1
0	4948	71.19303326939	1
0	4950	71.206828592583	1
0	4956	71.246234349778	1
0	4960	71.296103583065	1
0	4962	71.312004784745	1
0	4978	71.6252877337	1
0	4984	71.642707605358	1
0	4986	71.663426123583	1
0	4988	71.677284805725	1
0	5002	71.911608798734	1
0	5008	71.998102609677	1
0	5014	72.076586311636	1
0	5018	72.086266058867	1
0	5024	72.147314343367	1
0	5036	72.388715986418	1
0	5048	72.60245815546	1
0	5050	72.611119854905	1
0	5056	72.672480275879	1
0	5068	72.833613475791	1
0	5076	72.962409673299	1
0	5088	73.172073300651	1
0	5090	73.222993549338	1
0	5096	73.232805501601	1
0	5108	73.467192465681	1
0	5112	73.522758356997	1
0	5122	73.639884726492	1
0	5126	73.703982081018	1
0	5132	73.824253459401	1
0	5140	73.911050457603	1
0	5146	73.950758552605	1
0	5152	74.076722669667	1
0	5160	74.218101002621	1
0	5162	74.220845212664	1
0	5170	74.321922128974	1
0	5180	74.453374338782	1
0	5184	74.480820690982	1
0	5194	74.62647671214	1
0	5196	74.643976216962	1
0	5198	74.644957660602	1
0	5206	74.804113272881	1
0	5212	74.840971566842	1
0	5230	75.160797064519	1
0	5232	75.18730637466	1
0	5238	75.248580919146	1
0	5242	75.318583482758	1
0	5248	75.407983623026	1
0	5266	75.715291145305	1
0	5278	75.91028883649	1
0	5284	75.991890692886	1
0	5290	76.052996449015	1
0	5292	76.063251638315	1
0	5310	76.366645895555	1
0	5316	76.463846984661	1
0	5324	76.549590494922	1
0	5336	76.748384440406	1
0	5344	76.920291371585	1
0	5350	76.937445234322	1
0	5362	77.176963213261	1
0	5388	77.665313112296	1
0	5400	77.834336607772	1
0	5402	77.843219846037	1
0	5404	77.860585502358	1
0	5406	77.870507655006	1
0	5414	77.969635605582	1
0	5420	78.07004072297	1
0	5424	78.120862668375	1
0	5440	78.419040634108	1
0	5445	78.425517203387	1
0	5460	78.701577648955	1
0	5466	78.756748010214	1
0	5468	78.816056169947	1
0	5474	78.845989008189	1
0	5482	78.976072750935	1
0	5494	79.165145666378	1
0	5502	79.300717517763	1
0	5504	79.304104703287	1
0	5510	79.340775218666	1
0	5526	79.660151405934	1
0	5528	79.672908763314	1
0	5532	79.716816461873	1
0	5538	79.775493342541	1
0	5540	79.819608823614	1
0	5546	79.869329752248	1
0	5548	79.870976080646	1
0	5556	79.946872558071	1
0	5558	79.967357784786	1
0	5570	80.154021831804	1
0	5572	80.205314530987	1
0	5580	80.282160788726	1
0	5596	80.547079614949	1
0	5602	80.661107502641	1
0	5604	80.671600777374	1
0	5612	80.76555097596	1
0	5628	81.056142936326	1
0	5630	81.06651001999	1
0	5642	81.270139438717	1
0	5646	81.27979356662	1
0	5652	81.340336944784	1
0	5654	81.346096236466	1
0	5656	81.385652796506	1
0	5658	81.394703543521	1
0	5660	81.421197037285	1
0	5666	81.448269476359	1
0	5674	81.543581730186	1
0	5686	81.726535945772	1
0	5688	81.729899337864	1
0	5690	81.803791339858	1
0	5692	81.805364252235	1
0	5698	81.877328742004	1
0	5706	81.933329579337	1
0	5712	82.03826379593	1
0	5714	82.045313990766	1
0	5718	82.123969899955	1
0	5724	82.152997241467	1
0	5726	82.156297639973	1
0	5728	82.181292721638	1
0	5734	82.268078908627	1
0	5738	82.2972735158	1
0	5748	82.444715738278	1
0	5750	82.458763309974	1
0	5754	82.505960118751	1
0	5756	82.507171043257	1
0	5762	82.574706630274	1
0	5764	82.586978131006	1
0	5786	82.986734478678	1
0	5794	83.083093748307	1
0	5796	83.111151340925	1
0	5816	83.477107552771	1
0	5820	83.523999685498	1
0	5846	83.988027685093	1
0	5848	83.992701175267	1
0	5854	84.045304254843	1
0	5858	84.082420426923	1
0	5860	84.100208102709	1
0	5870	84.278301570198	1
0	5878	84.380123328079	1
0	5890	84.544641670786	1
0	5892	84.612036015208	1
0	5900	84.714207849949	1
0	5926	85.168990235135	1
0	5928	85.214893027884	1
0	5930	85.221646443572	1
0	5936	85.259152637884	1
0	5944	85.412046524955	1
0	5956	85.573912631597	1
0	5958	85.607936353558	1
0	5960	85.615241519273	1
0	5966	85.642872038566	1
0	5974	85.757938297859	1
0	5980	85.866558628975	1
0	5984	85.914479898423	1
0	5990	85.942724569619	1
0	5996	86.043217900525	1
0	6004	86.152837156626	1
0	6016	86.414401249868	1
0	6024	86.487239007171	1
0	6034	86.679612864238	1
0	6042	86.734793076402	1
0	6044	86.803644465206	1
0	6052	86.884542434719	1
0	6058	86.940375113645	1
0	6060	86.974209725515	1
0	6072	87.147121689283	1
0	6078	87.269734910506	1
0	6086	87.403762506704	1
0	6092	87.457352386238	1
0	6096	87.516618128032	1
0	6102	87.561332118292	1
0	6120	87.908396626346	1
0	6132	88.084805365565	1
0	6138	88.129929245414	1
0	6150	88.388911859964	1
0	6156	88.439584181354	1
0	6158	88.44429410846	1
0	6166	88.578496082578	1
0	6168	88.604974309912	1
0	6174	88.664591499052	1
0	6178	88.70744225947	1
0	6194	88.984356707754	1
0	6206	89.15307853663	1
0	6208	89.182815889421	1
0	6230	89.606117469054	1
0	6236	89.654205291484	1
0	6254	90.001490862074	1
0	6262	90.120939856425	1
0	6278	90.356273333232	1
0	6290	90.583644049901	1
0	6292	90.618820788444	1
0	6298	90.631724638762	1
0	6322	91.114696663559	1
0	6328	91.142343935213	1
0	6330	91.171034844751	1
0	6332	91.196946070339	1
0	6334	91.208140524453	1
0	6340	91.275378814657	1
0	6358	91.576875641876	1
0	6370	91.798997060196	1
0	6376	91.825578715098	1
0	6378	91.869912154698	1
0	6386	91.986955727699	1
0	6392	92.035607641675	1
0	6394	92.041620478588	1
0	6408	92.290183587023	1
0	6414	92.421379895131	1
0	6420	92.433463034757	1
0	6432	92.646933274211	1
0	6440	92.746663166628	1
0	6442	92.778468621147	1
0	6444	92.792718915712	1
0	6450	92.840370497809	1
0	6454	92.887250066973	1
0	6460	92.934137882536	1
0	6462	92.973354011498	1
0	6470	93.111499919483	1
0	6479	93.225479460149	1
0	6482	93.252635039317	1
0	6490	93.411370762286	1
0	6496	93.430227234711	1
0	6500	93.500331785644	1
0	6506	93.559986777332	1
0	6508	93.595118905486	1
0	6514	93.631426789504	1
0	6526	93.848549377639	1
0	6538	94.031302004421	1
0	6540	94.074668489958	1
0	6544	94.101815486601	1
0	6554	94.23590565906	1
0	6558	94.305699413943	1
0	6564	94.386748728661	1
0	6580	94.672491263443	1
0	6584	94.694995512829	1
0	6590	94.795507077686	1
0	6596	94.875029297817	1
0	6608	95.076987748139	1
0	6616	95.150310282007	1
0	6632	95.432001455003	1
0	6634	95.47489263858	1
0	6642	95.613828489275	1
0	6644	95.616321298848	1
0	6656	95.736577033319	1
0	6658	95.752691291202	1
0	6676	96.096785695961	1
0	6678	96.110925007234	1
0	6708	96.629437949537	1
0	6716	96.75250983464	1
0	6718	96.812625299278	1
0	6730	96.936093286883	1
0	6732	96.943443924625	1
0	6738	97.03805409875	1
0	6740	97.072697431499	1
0	6748	97.184143254671	1
0	6750	97.200672555903	1
0	6756	97.260005612729	1
0	6760	97.314045882489	1
0	6770	97.433144027829	1
0	6772	97.447218543372	1
0	6776	97.494752510336	1
0	6782	97.587416370366	1
0	6784	97.597955983357	1
0	6790	97.646213504873	1
0	6808	97.968745113245	1
0	6820	98.194492792321	1
0	6822	98.202011973237	1
0	6844	98.545574312485	1
0	6846	98.54752324178	1
0	6852	98.62668415124	1
0	6870	99.015775160281	1
0	6876	99.047909190568	1
0	6878	99.063982194625	1
0	6886	99.153687496036	1
0	6888	99.18362279633	1
0	6900	99.41069380707	1
0	6906	99.434968350806	1
0	6910	99.487179481247	1
0	6916	99.57390868313	1
0	6922	99.654222360322	1
0	6944	100.026163191412	1
0	6946	100.057860929401	1
0	6950	100.089745034242	1
0	6956	100.150523510654	1
0	6974	100.501429865754	1
0	6980	100.55279842708	1
0	6982	100.555381231523	1
0	6984	100.583938123573	1
0	6996	100.802902795029	1
0	7002	100.873397727167	1
0	7010	100.996706599889	1
0	7016	101.033868175372	1
0	7018	101.066409847088	1
0	7022	101.113096281444	1
0	7038	101.338345568451	1
0	7040	101.412783394591	1
0	7042	101.415471456542	1
0	7054	101.554339183929	1
0	7060	101.652592018201	1
0	7064	101.693164652588	1
0	7070	101.733144179836	1
0	7082	101.991055492915	1
0	7104	102.332547983158	1
0	7116	102.530829241185	1
0	7118	102.549290828476	1
0	7120	102.554282388719	1
0	7132	102.786034994976	1
0	7134	102.815290055095	1
0	7140	102.855328208241	1
0	7144	102.914411730281	1
0	7160	103.134444662325	1
0	7162	103.145496249985	1
0	7164	103.217332833506	1
0	7170	103.260176936385	1
0	7178	103.331640355123	1
0	7184	103.466385237492	1
0	7188	103.515296078554	1
0	7198	103.629400411979	1
0	7202	103.704921593755	1
0	7208	103.802309452903	1
0	7226	104.091821214605	1
0	7232	104.215791022667	1
0	7248	104.439155007777	1
0	7250	104.462086724941	1
0	7258	104.575132444772	1
0	7260	104.616941610666	1
0	7268	104.718836928774	1
0	7278	104.831612972131	1
0	7282	104.911100255738	1
0	7294	105.122490937203	1
0	7300	105.154330238809	1
0	7306	105.232785908501	1
0	7308	105.248834319237	1
0	7312	105.282060381595	1
0	7322	105.476065202583	1
0	7324	105.479135379884	1
0	7332	105.579936733932	1
0	7340	105.70384038467	1
0	7346	105.739456962826	1
0	7348	105.740248497477	1
0	7350	105.801907806329	1
0	7356	105.848537508973	1
0	7358	105.851020829748	1
0	7366	105.926637454527	1
0	7368	106.008296723412	1
0	7384	106.263544372767	1
0	7388	106.308353169605	1
0	7390	106.317728708366	1
0	7396	106.387586808974	1
0	7402	106.439664695461	1
0	7404	106.456344271273	1
0	7406	106.45880563568	1
0	7410	106.514232483021	1
0	7416	106.556180415368	1
0	7428	106.792809441753	1
0	7436	106.890156696118	1
0	7438	106.891011497983	1
0	7440	106.923732536116	1
0	7460	107.270671919994	1
0	7464	107.294212506644	1
0	7470	107.411619520323	1
0	7472	107.423915777012	1
0	7478	107.434387004355	1
0	7482	107.520458475106	1
0	7488	107.554675944268	1
0	7494	107.673508860297	1
0	7502	107.75096053909	1
0	7508	107.86242163939	1
0	7516	107.991210663301	1
0	7534	108.288531497249	1
0	7540	108.337775634887	1
0	7542	108.338046322345	1
0	7544	108.363804808979	1
0	7550	108.467989255461	1
0	7558	108.528660496385	1
0	7560	108.620387676076	1
0	7582	108.97823784866	1
0	7588	109.067090719893	1
0	7600	109.246558031293	1
0	7618	109.575622914319	1
0	7630	109.82188734126	1
0	7632	109.823588903633	1
0	7644	109.933635756681	1
0	7650	110.052867334103	1
0	7654	110.110968199649	1
0	7664	110.278996439657	1
0	7672	110.394543912532	1
0	7678	110.465839560445	1
0	7686	110.570422089724	1
0	7688	110.611063376399	1
0	7690	110.614016557515	1
0	7702	110.770482212585	1
0	7714	111.02247108197	1
0	7720	111.032701260071	1
0	7724	111.110889702381	1
0	7730	111.169235719612	1
0	7756	111.641875239298	1
0	7760	111.715262236	1
0	7766	111.763567538426	1
0	7774	111.881970312061	1
0	7784	112.046305635582	1
0	7786	112.055834083869	1
0	7790	112.117639321583	1
0	7796	112.143485246455	1
0	7804	112.318830058283	1
0	7810	112.371644457355	1
0	7816	112.449105830991	1
0	7824	112.546735033288	1
0	7836	112.765006422217	1
0	7848	112.983008466933	1
0	7860	113.195123912618	1
0	7868	113.291573888794	1
0	7874	113.331368728259	1
0	7876	113.345693598638	1
0	7878	113.397516383448	1
0	7900	113.791662251911	1
0	7906	113.870330563457	1
0	7918	114.075735811843	1
0	7926	114.172940708691	1
0	7932	114.242801065386	1
0	7936	114.29050084048	1
0	7952	114.546052612146	1
0	7954	114.624169491145	1
0	7962	114.702122994028	1
0	7964	114.715010858632	1
0	7980	114.971804121502	1
0	7988	115.085965673854	1
0	7998	115.263101005786	1
0	8002	115.296945119068	1
0	8022	115.642046132004	1
0	8024	115.646438855417	1
0	8038	115.898740601552	1
0	8040	115.911081548703	1
0	8042	115.914751455731	1
0	8048	115.926004450369	1
0	8050	115.945214007984	1
0	8052	115.98326510284	1
0	8058	116.032552979677	1
0	8060	116.060860223262	1
0	8078	116.364813382275	1
0	8084	116.447545974635	1
0	8088	116.483217599902	1
0	8100	116.720041205202	1
0	8106	116.737532231212	1
0	8108	116.824307745506	1
0	8124	117.041731036219	1
0	8132	117.132845617026	1
0	8134	117.191975895583	1
0	8136	117.21916247944	1
0	8152	117.457624013763	1
0	8160	117.544585549847	1
0	8162	117.562048329495	1
0	8164	117.577815534778	1